# vtk DataFile Version 3.0
Cuboid
ASCII
DATASET UNSTRUCTURED_GRID
CELLS 1 9
8 0 1 2 3 4 5 6 7  
CELL_TYPES 1
12
POINTS 8 double
30.0   -30.0   -25.0
30.0   30.0   -25.0
-30.0   30.0   -25.0
-30.0   -30.0   -25.0
30.0   -30.0   25.0
30.0   30.0   25.0
-30.0   30.0   25.0
-30.0   -30.0   25.0
POINT_DATA 8
VECTORS velocity double
10.0   0.0   0.0
0.0   0.0   0.0
0.0  -1.0   0.0
0.0   0.0  -1.0
10.0   0.0   0.0
0.0   0.0   0.0
0.0  -1.0   0.0
0.0   0.0  -1.0
CELL_DATA     1
VECTORS Vel double
10.0   0.0   0.0
VECTORS Omega double
0.0   10.0   0.0